FoamFile
{
    version     2.0;
    format      ascii;
    class       volScalarField;
    location    "100";
    object      theta.expected;
}
// * * * * * * * * * * * * * * * * * * * * * * * * * * * * * * * * * * * * * //

dimensions      [0 0 0 0 0 0 0];

internalField   nonuniform List<scalar> 
5000
(
0.6999998924102057
0.6999998764285899
0.6999998593807781
0.6999998412705781
0.6999998221017976
0.6999998018782445
0.6999997806037268
0.6999997582820523
0.6999997349170285
0.6999997105124636
0.6999996850721015
0.6999996585987354
0.6999996310945038
0.6999996025615421
0.6999995730019851
0.6999995424179676
0.6999995108116243
0.6999994781850903
0.6999994445405004
0.6999994098799895
0.6999993742056926
0.6999993375197443
0.6999992998242797
0.6999992611214336
0.699999221413575
0.6999991807026402
0.6999991389897663
0.6999990962760814
0.699999052562714
0.6999990078507922
0.6999989621414443
0.6999989154357987
0.6999988677349837
0.6999988190401274
0.6999987693523582
0.6999987186728046
0.6999986670025945
0.6999986143428564
0.6999985606947187
0.6999985060593094
0.699998450437757
0.6999983938311897
0.6999983362407358
0.6999982776675236
0.6999982181126815
0.6999981575773375
0.6999980960626203
0.6999980335696578
0.6999979700995784
0.6999979056535106
0.6999978402326203
0.6999977738379125
0.6999977064699071
0.6999976381290919
0.6999975688159547
0.699997498530983
0.6999974272746649
0.699997355047488
0.6999972818499399
0.6999972076825084
0.6999971325456815
0.6999970564399467
0.699996979365792
0.6999969013237047
0.699996822314173
0.6999967423376844
0.6999966613947268
0.6999965794857878
0.6999964966113551
0.6999964127719167
0.6999963279679601
0.6999962421999734
0.6999961554684438
0.6999960677738596
0.6999959791167081
0.6999958894974773
0.6999957989166549
0.6999957073747285
0.6999956148721861
0.6999955214095155
0.6999954269872041
0.6999953316057399
0.6999952352656106
0.6999951379673036
0.6999950397113074
0.6999949404981092
0.6999948403281968
0.699994739202058
0.6999946371201806
0.6999945340830525
0.6999944300911609
0.6999943251451723
0.699994219245959
0.6999941123936273
0.699994004588229
0.6999938958298164
0.6999937861184412
0.6999936754541556
0.6999935638370114
0.6999934512670606
0.6999933377443551
0.6999932232689472
0.6999931078408885
0.6999929914602313
0.6999928741270272
0.6999927558413286
0.6999926366031871
0.699992516412655
0.699992395269784
0.6999922731746262
0.6999921501272336
0.6999920261276582
0.6999919011759519
0.6999917752721666
0.6999916484163545
0.6999915206085675
0.6999913918488575
0.6999912621372765
0.6999911314738765
0.6999909998587093
0.6999908672918272
0.699990733773282
0.6999905993031259
0.6999904638814104
0.6999903275081878
0.69999019018351
0.6999900519074291
0.699989912679997
0.6999897725012656
0.6999896313712869
0.699989489290113
0.6999893462577957
0.6999892022743871
0.6999890573399391
0.6999889114545038
0.6999887646181331
0.6999886168308789
0.6999884680927934
0.6999883184039283
0.6999881677643357
0.6999880161740676
0.6999878636331758
0.6999877101417127
0.6999875556997298
0.6999874003072794
0.6999872439644135
0.6999870866711837
0.6999869284276423
0.6999867692338412
0.6999866090898323
0.6999864479956678
0.6999862859513994
0.6999861229570793
0.6999859590127594
0.6999857941184914
0.6999856282743279
0.6999854614803201
0.6999852937365207
0.6999851250429813
0.6999849553997539
0.6999847848073149
0.6999846132665445
0.6999844407771757
0.6999842673388934
0.6999840929513824
0.699983917614328
0.6999837413274146
0.6999835640903274
0.6999833859027511
0.6999832067643709
0.6999830266748717
0.6999828456339381
0.6999826636412552
0.6999824806965078
0.6999822967993811
0.6999821119495597
0.6999819261467287
0.6999817393905728
0.6999815516807772
0.6999813630170265
0.699981173399006
0.6999809828264002
0.6999807912988943
0.699980598816173
0.6999804053779214
0.6999802109838242
0.6999800156335665
0.6999798193268333
0.699979622063309
0.6999794238426791
0.6999792246646281
0.6999790245288414
0.6999788234350033
0.6999786213827991
0.6999784183719137
0.6999782144020318
0.6999780094728384
0.6999778035840184
0.6999775967352568
0.6999773889262385
0.6999771801566484
0.6999769704261714
0.6999767597344922
0.6999765480812962
0.6999763354662678
0.6999761218890921
0.699975907349454
0.6999756918470387
0.6999754753815306
0.699975257952615
0.6999750395599766
0.6999748202033004
0.6999745998822714
0.6999743785965742
0.6999741563458941
0.6999739331299156
0.699973708948324
0.699973483800804
0.6999732576870406
0.6999730306067186
0.699972802559523
0.6999725735451386
0.6999723435632506
0.6999721126135435
0.6999718806957025
0.6999716478094126
0.6999714139543582
0.6999711791302248
0.6999709433366968
0.6999707065734596
0.6999704688401979
0.6999702301365964
0.6999699904623402
0.6999697498171144
0.6999695082006036
0.6999692656124927
0.6999690220524669
0.6999687775202109
0.6999685320154098
0.6999682855377481
0.6999680380869112
0.6999677896625836
0.6999675402644504
0.6999672898921967
0.6999670385455071
0.6999667862240666
0.6999665329275602
0.6999662786556727
0.6999660234080891
0.6999657671844943
0.699965509984573
0.6999652518080104
0.6999649926544914
0.6999647325237007
0.6999644714153234
0.6999642093290441
0.6999639462645482
0.6999636822215203
0.6999634171996454
0.6999631511986082
0.6999628842180938
0.6999626162577871
0.6999623473173731
0.6999620773965366
0.6999618064949623
0.6999615346123357
0.6999612617483411
0.6999609879026637
0.6999607130749882
0.6999604372649999
0.6999601604723834
0.6999598826968239
0.6999596039397116
0.6999593242027591
0.6999590434852515
0.6999587617864614
0.6999584791056616
0.6999581954421247
0.6999579107951237
0.6999576251639312
0.6999573385478203
0.6999570509460632
0.6999567623579332
0.6999564727827028
0.6999561822196447
0.699955890668032
0.6999555981271371
0.6999553045962329
0.6999550100745924
0.699954714561488
0.6999544180561926
0.699954120557979
0.69995382206612
0.6999535225798884
0.6999532220985568
0.6999529206213982
0.6999526181476852
0.6999523146766905
0.699952010207687
0.6999517047399476
0.6999513982727448
0.6999510908053516
0.6999507823370404
0.6999504728670845
0.6999501623947563
0.6999498509193285
0.699949538440074
0.6999492249562659
0.6999489104671763
0.6999485949720786
0.6999482784702453
0.699947960960949
0.6999476424434626
0.6999473229170591
0.699947002381011
0.6999466808345911
0.6999463582770723
0.6999460347077272
0.6999457101258286
0.6999453845306494
0.6999450579214622
0.6999447302975399
0.6999444016581552
0.6999440720025809
0.6999437413300899
0.6999434096399545
0.6999430769314481
0.6999427432038429
0.6999424084564121
0.6999420726884283
0.6999417358991642
0.6999413980878926
0.6999410592538864
0.6999407193964181
0.6999403785147609
0.699940036608187
0.6999396936759698
0.6999393497173816
0.6999390047316952
0.6999386587181835
0.6999383116761195
0.6999379636047753
0.6999376145034245
0.6999372643713393
0.6999369132077925
0.6999365610120571
0.6999362077834057
0.6999358535211113
0.6999354982244465
0.6999351418926838
0.6999347845250963
0.6999344261209568
0.699934066679538
0.6999337062001125
0.6999333446819533
0.6999329821243331
0.6999326185265244
0.6999322538878006
0.6999318882074338
0.6999315214846972
0.6999311537188633
0.699930784909205
0.6999304150549951
0.6999300441555063
0.6999296722100115
0.6999292992177831
0.6999289251780944
0.6999285500902177
0.699928173953426
0.699927796766992
0.6999274185301887
0.6999270392422884
0.6999266589025643
0.6999262775102889
0.6999258950647352
0.6999255115651759
0.6999251270108835
0.699924741401131
0.6999243547351913
0.6999239670123368
0.6999235782318407
0.6999231883929754
0.699922797495014
0.6999224055372291
0.6999220125188932
0.6999216184392794
0.6999212232976605
0.699920827093309
0.6999204298254981
0.6999200314935001
0.699919632096588
0.6999192316340346
0.6999188301051125
0.6999184275090946
0.6999180238452536
0.6999176191128624
0.6999172133111937
0.6999168064395201
0.6999163984971146
0.69991598948325
0.6999155793971988
0.6999151682382339
0.6999147560056281
0.6999143426986543
0.6999139283165849
0.6999135128586931
0.6999130963242512
0.6999126787125325
0.6999122600228095
0.6999118402543547
0.6999114194064413
0.699910997478342
0.6999105744693292
0.6999101503786762
0.6999097252056554
0.6999092989495398
0.6999088716096019
0.6999084431851146
0.6999080136753507
0.6999075830795829
0.6999071513970841
0.6999067186271271
0.6999062847689844
0.699905849821929
0.6999054137852335
0.6999049766581709
0.6999045384400137
0.6999040991300348
0.6999036587275069
0.699903217231703
0.6999027746418955
0.6999023309573575
0.6999018861773617
0.6999014403011807
0.6999009933280875
0.6999005452573547
0.699900096088255
0.6998996458200614
0.6998991944520464
0.6998987419834831
0.699898288413644
0.6998978337418019
0.6998973779672296
0.6998969210892
0.6998964631069858
0.6998960040198596
0.6998955438270944
0.6998950825279627
0.6998946201217375
0.6998941566076917
0.6998936919850977
0.6998932262532284
0.6998927594109743
0.6998922914561401
0.6998918223874508
0.6998913522037212
0.6998908809037659
0.6998904084863997
0.6998899349504374
0.6998894602946938
0.6998889845179833
0.699888507619121
0.6998880295969214
0.6998875504501996
0.6998870701777699
0.6998865887784471
0.6998861062510461
0.6998856225943816
0.6998851378072682
0.699884651888521
0.6998841648369544
0.6998836766513833
0.699883187330622
0.699882696873486
0.6998822052787895
0.6998817125453475
0.6998812186719743
0.6998807236574852
0.6998802275006946
0.6998797302004173
0.6998792317554681
0.6998787321646617
0.6998782314268127
0.699877729540736
0.6998772265052465
0.6998767223191585
0.6998762169812871
0.699875710490447
0.6998752028454525
0.6998746940451189
0.6998741840882607
0.6998736729736927
0.6998731607002295
0.6998726472666861
0.699872132671877
0.6998716169146169
0.6998710999937208
0.699870581908003
0.6998700626562786
0.6998695422373624
0.6998690206500691
0.6998684978932129
0.6998679739656092
0.6998674488660726
0.6998669225934174
0.699866395146459
0.6998658665240115
0.6998653367248902
0.6998648057479094
0.6998642735918841
0.6998637402556289
0.6998632057379587
0.699862670037688
0.6998621331536317
0.6998615950846044
0.699861055829421
0.6998605153868963
0.6998599737558447
0.6998594309350813
0.6998588869234206
0.6998583417196774
0.6998577953226665
0.6998572477312025
0.6998566989441002
0.6998561489601745
0.6998555977782399
0.6998550453971112
0.6998544918156032
0.6998539370325305
0.6998533810467081
0.6998528238569506
0.6998522654620726
0.699851705860889
0.6998511450522145
0.6998505830348638
0.6998500198076516
0.6998494553693928
0.6998488897189019
0.6998483228549939
0.6998477547764833
0.6998471854821849
0.6998466149709136
0.699846043241484
0.6998454702927108
0.6998448961234088
0.6998443207323928
0.6998437441184774
0.6998431662804774
0.6998425872172075
0.6998420069274824
0.6998414254101171
0.699840842663926
0.699840258687724
0.6998396734803258
0.6998390870405463
0.6998384993671999
0.6998379104591016
0.699837320315066
0.6998367289339079
0.6998361363144422
0.6998355424554832
0.6998349473558461
0.6998343510143453
0.6998337534297958
0.6998331546010123
0.6998325545268093
0.6998319532060017
0.6998313506374043
0.6998307468198317
0.6998301417520987
0.69982953543302
0.6998289278614104
0.6998283190360847
0.6998277089558573
0.6998270976195434
0.6998264850259575
0.6998258711739143
0.6998252560622286
0.699824639689715
0.6998240220551886
0.6998234031574636
0.6998227829953553
0.6998221615676781
0.6998215388732467
0.6998209149108761
0.6998202896793807
0.6998196631775756
0.6998190354042753
0.6998184063582946
0.6998177760384481
0.6998171444435508
0.6998165115724172
0.6998158774238622
0.6998152419967005
0.6998146052897468
0.6998139673018158
0.6998133280317222
0.699812687478281
0.6998120456403066
0.6998114025166139
0.6998107581060178
0.6998101124073328
0.6998094654314514
0.6998088172231729
0.699808167784801
0.6998075171140153
0.6998068652084952
0.69980621206592
0.6998055576839689
0.6998049020603213
0.6998042451926568
0.6998035870786544
0.6998029277159938
0.6998022671023542
0.6998016052354149
0.6998009421128554
0.6998002777323548
0.6997996120915928
0.6997989451882486
0.6997982770200014
0.6997976075845307
0.699796936879516
0.6997962649026366
0.6997955916515716
0.6997949171240007
0.699794241317603
0.6997935642300579
0.6997928858590449
0.6997922062022432
0.6997915252573325
0.6997908430219916
0.6997901594939002
0.6997894746707378
0.6997887885501833
0.6997881011299165
0.6997874124076165
0.6997867223809628
0.6997860310476347
0.6997853384053117
0.6997846444516729
0.6997839491843977
0.6997832526011656
0.6997825546996558
0.6997818554775479
0.6997811549325209
0.6997804530622546
0.699779749864428
0.6997790453367206
0.6997783394768119
0.699777632282381
0.6997769237511072
0.6997762138806701
0.6997755026687491
0.6997747901130235
0.6997740762111724
0.6997733609608754
0.6997726443598118
0.699771926405661
0.6997712070961023
0.699770486428815
0.6997697644014788
0.6997690410117725
0.6997683162573759
0.6997675901359683
0.6997668626452288
0.6997661337828371
0.6997654035464723
0.699764671933814
0.6997639389425413
0.6997632045703336
0.6997624688148704
0.699761731673831
0.6997609931448947
0.699760253225741
0.699759511914049
0.6997587692074981
0.699758025103768
0.6997572796005379
0.6997565326954871
0.6997557843862948
0.6997550346706405
0.6997542835462037
0.6997535310106636
0.6997527770616995
0.6997520216969909
0.6997512649142171
0.6997505067110574
0.6997497470851913
0.6997489860342981
0.699748223556057
0.6997474596481476
0.6997466943082491
0.6997459275340411
0.6997451593232026
0.699744389673413
0.699743618582352
0.6997428460476987
0.6997420720671323
0.6997412966383326
0.6997405197589787
0.6997397414267499
0.6997389616393256
0.6997381803943853
0.6997373976896082
0.6997366135226737
0.6997358278912611
0.69973504079305
0.6997342522257195
0.699733462186949
0.699732670674418
0.6997318776858057
0.6997310832187915
0.6997302872710547
0.6997294898402748
0.6997286909241311
0.699727890520303
0.6997270886264699
0.6997262852403109
0.6997254803595057
0.6997246739817333
0.6997238661046733
0.699723056726005
0.6997222458434077
0.699721433454561
0.6997206195571439
0.699719804148836
0.6997189872273166
0.699718168790265
0.6997173488353607
0.699716527360283
0.6997157043627111
0.6997148798403245
0.6997140537908025
0.6997132262118247
0.6997123971010701
0.6997115664562183
0.6997107342749485
0.6997099005549402
0.6997090652938727
0.6997082284894253
0.6997073901392774
0.6997065502411085
0.6997057087925976
0.6997048657914245
0.6997040212352682
0.6997031751218082
0.6997023274487241
0.6997014782136948
0.6997006274143999
0.6996997750485188
0.6996989211137306
0.699698065607715
0.6996972085281512
0.6996963498727186
0.6996954896390964
0.6996946278249643
0.6996937644280012
0.699692899445887
0.6996920328763006
0.6996911647169214
0.699690294965429
0.6996894236195026
0.6996885506768217
0.6996876761350654
0.6996867999919132
0.6996859222450447
0.6996850428921387
0.699684161930875
0.699683279358933
0.6996823951739918
0.6996815093737309
0.6996806219558296
0.6996797329179671
0.6996788422578232
0.6996779499730769
0.6996770560614075
0.6996761605204947
0.6996752633480177
0.6996743645416557
0.6996734640990883
0.6996725620179947
0.6996716582960542
0.6996707529309464
0.6996698459203503
0.6996689372619456
0.6996680269534117
0.6996671149924276
0.6996662013766729
0.6996652861038269
0.6996643691715689
0.6996634505775785
0.6996625303195348
0.6996616083951172
0.6996606848020052
0.6996597595378781
0.699658832600415
0.6996579039872957
0.6996569736961991
0.699656041724805
0.6996551080707925
0.6996541727318409
0.6996532357056298
0.6996522969898384
0.699651356582146
0.6996504144802321
0.6996494706817761
0.6996485251844571
0.6996475779859548
0.6996466290839481
0.6996456784761168
0.6996447261601403
0.6996437721336974
0.6996428163944679
0.6996418589401312
0.6996408997683664
0.699639938876853
0.6996389762632705
0.699638011925298
0.6996370458606149
0.6996360780669006
0.6996351085418346
0.6996341372830961
0.6996331642883644
0.699632189555319
0.6996312130816392
0.6996302348650044
0.699629254903094
0.6996282731935872
0.6996272897341634
0.6996263045225021
0.6996253175562825
0.699624328833184
0.6996233383508861
0.6996223461070679
0.6996213520994089
0.6996203563255885
0.699619358783286
0.6996183594701808
0.6996173583839521
0.6996163555222795
0.6996153508828423
0.6996143444633196
0.6996133362613912
0.699612326274736
0.6996113145010338
0.6996103009379636
0.6996092855832048
0.699608268434437
0.6996072494893393
0.6996062287455913
0.6996052062008722
0.6996041818528613
0.6996031556992381
0.6996021277376818
0.6996010979658721
0.6996000663814879
0.6995990329822088
0.6995979977657142
0.6995969607296834
0.6995959218717958
0.6995948811897306
0.6995938386811673
0.6995927943437853
0.6995917481752637
0.6995907001732822
0.6995896503355199
0.6995885986596564
0.6995875451433708
0.6995864897843426
0.6995854325802512
0.6995843735287758
0.6995833126275959
0.6995822498743908
0.6995811852668399
0.6995801188026225
0.6995790504794179
0.6995779802949057
0.699576908246765
0.6995758343326753
0.6995747585503158
0.6995736808973662
0.6995726013715056
0.6995715199704132
0.6995704366917687
0.6995693515332512
0.6995682644925403
0.6995671755673152
0.6995660847552552
0.6995649920540399
0.6995638974613483
0.6995628009748601
0.6995617025922544
0.6995606023112108
0.6995595001294085
0.6995583960445269
0.6995572900542453
0.6995561821562433
0.6995550723481998
0.6995539606277945
0.6995528469927067
0.6995517314406158
0.699550613969201
0.6995494945761419
0.6995483732591176
0.6995472500158076
0.6995461248438913
0.699544997741048
0.699543868704957
0.6995427377332977
0.6995416048237494
0.6995404699739916
0.6995393331817036
0.6995381944445648
0.6995370537602544
0.6995359111264519
0.6995347665408367
0.699533620001088
0.6995324715048852
0.6995313210499076
0.6995301686338348
0.699529014254346
0.6995278579091205
0.6995266995958377
0.6995255393121771
0.6995243770558179
0.6995232128244396
0.6995220466157215
0.6995208784273426
0.6995197082569827
0.6995185361023212
0.6995173619610371
0.6995161858308102
0.6995150077093194
0.6995138275942442
0.6995126454832642
0.6995114613740586
0.6995102752643065
0.6995090871516878
0.6995078970338814
0.6995067049085668
0.6995055107734234
0.6995043146261306
0.6995031164643677
0.699501916285814
0.6995007140881488
0.6994995098690517
0.699498303626202
0.6994970953572789
0.6994958850599619
0.6994946727319301
0.6994934583708632
0.6994922419744405
0.6994910235403412
0.6994898030662446
0.6994885805498303
0.6994873559887776
0.6994861293807658
0.6994849007234744
0.6994836700145823
0.6994824372517694
0.6994812024327148
0.6994799655550978
0.699478726616598
0.6994774856148946
0.699476242547667
0.6994749974125946
0.6994737502073565
0.6994725009296323
0.6994712495771014
0.6994699961474431
0.6994687406383365
0.6994674830474613
0.6994662233724969
0.6994649616111224
0.6994636977610172
0.6994624318198607
0.6994611637853324
0.6994598936551114
0.6994586214268772
0.6994573470983092
0.6994560706670868
0.6994547921308892
0.6994535114873958
0.6994522287342859
0.699450943869239
0.6994496568899345
0.6994483677940517
0.6994470765792697
0.6994457832432681
0.6994444877837265
0.6994431901983238
0.6994418904847396
0.6994405886406532
0.6994392846637439
0.6994379785516911
0.6994366703021744
0.6994353599128726
0.6994340473814658
0.6994327327056327
0.6994314158830529
0.699430096911406
0.6994287757883709
0.6994274525116273
0.6994261270788545
0.6994247994877316
0.6994234697359384
0.6994221378211539
0.6994208037410576
0.699419467493329
0.699418129075647
0.6994167884856914
0.6994154457211416
0.6994141007796766
0.699412753658976
0.6994114043567189
0.699410052870585
0.6994086991982537
0.699407343337404
0.6994059852857153
0.6994046250408671
0.6994032626005389
0.6994018979624098
0.6994005311241593
0.6993991620834668
0.6993977908380115
0.6993964173854729
0.6993950417235301
0.6993936638622316
0.6993922838119957
0.6993909015674653
0.6993895171232554
0.6993881304739813
0.6993867416142578
0.6993853505387002
0.6993839572419236
0.6993825617185432
0.6993811639631738
0.6993797639704309
0.6993783617349295
0.6993769572512846
0.6993755505141113
0.6993741415180248
0.6993727302576401
0.6993713167275726
0.6993699009224371
0.6993684828368488
0.6993670624654229
0.6993656398027743
0.6993642148435184
0.6993627875822702
0.6993613580136447
0.6993599261322572
0.6993584919327226
0.6993570554096562
0.699355616557673
0.6993541753713881
0.6993527318454167
0.6993512859743738
0.6993498377528746
0.6993483871755343
0.6993469342369678
0.6993454789317903
0.699344021254617
0.6993425612000629
0.6993410987627432
0.6993396339372729
0.6993381667182672
0.6993366971003412
0.69933522507811
0.6993337506461886
0.6993322737991924
0.6993307945317363
0.6993293128384354
0.6993278287139048
0.6993263421527598
0.6993248531496153
0.6993233616990865
0.6993218677957884
0.6993203714343363
0.6993188726093453
0.6993173713154305
0.6993158675472068
0.6993143612992896
0.6993128525662937
0.6993113413428346
0.6993098276235271
0.6993083114029864
0.6993067926758276
0.6993052714366659
0.6993037476801164
0.699302221400794
0.6993006925933142
0.6992991612522916
0.6992976273723418
0.6992960909480797
0.6992945519741204
0.699293010445079
0.6992914663555707
0.6992899197002105
0.6992883704736136
0.6992868186703951
0.69928526428517
0.6992837073125536
0.6992821477471609
0.6992805855836071
0.6992790208165072
0.6992774534404763
0.6992758834501296
0.6992743108400821
0.699272735604949
0.6992711577393456
0.6992695772378866
0.6992679940951874
0.6992664083058631
0.6992648198645286
0.6992632287657993
0.6992616350042901
0.6992600385746162
0.6992584394713927
0.6992568376892347
0.6992552332227573
0.6992536260665756
0.6992520162153049
0.69925040366356
0.6992487884059562
0.6992471704371087
0.6992455497516324
0.6992439263441426
0.6992423002092542
0.6992406713415825
0.6992390397357425
0.6992374053863493
0.699235768288018
0.699234128435364
0.699232485823002
0.6992308404455474
0.6992291922976153
0.6992275413738206
0.6992258876687785
0.6992242311771042
0.6992225718934127
0.6992209098123193
0.699219244928439
0.6992175772363868
0.6992159067307779
0.6992142334062275
0.6992125572573505
0.6992108782787623
0.6992091964650777
0.6992075118109121
0.6992058243108804
0.6992041339595979
0.6992024407516795
0.6992007446817404
0.6991990457443958
0.6991973439342608
0.6991956392459503
0.6991939316740796
0.6991922212132639
0.6991905078581181
0.6991887916032573
0.6991870724432968
0.6991853503728516
0.699183625386537
0.6991818974789678
0.6991801666447592
0.6991784328785264
0.6991766961748846
0.6991749565284487
0.6991732139338339
0.6991714683856555
0.6991697198785282
0.6991679684070674
0.6991662139658881
0.6991644565496057
0.6991626961528349
0.6991609327701909
0.6991591663962891
0.6991573970257442
0.6991556246531717
0.6991538492731865
0.6991520708804039
0.6991502894694387
0.6991485050349062
0.6991467175714214
0.6991449270735997
0.6991431335360557
0.6991413369534051
0.6991395373202626
0.6991377346312436
0.6991359288809629
0.6991341200640357
0.6991323081750773
0.6991304932087028
0.699128675159527
0.6991268540221655
0.6991250297912328
0.6991232024613446
0.6991213720271157
0.6991195384831611
0.6991177018240962
0.699115862044536
0.6991140191390955
0.69911217310239
0.6991103239290346
0.6991084716136443
0.6991066161508342
0.6991047575352195
0.6991028957614153
0.6991010308240365
0.6990991627176986
0.6990972914370165
0.6990954169766053
0.69909353933108
0.699091658495056
0.6990897744631481
0.6990878872299717
0.6990859967901418
0.6990841031382735
0.6990822062689819
0.699080306176882
0.6990784028565891
0.6990764963027183
0.6990745865098845
0.6990726734727031
0.699070757185789
0.6990688376437575
0.6990669148412235
0.6990649887728023
0.6990630594331089
0.6990611268167584
0.6990591909183659
0.6990572517325465
0.6990553092539157
0.699053363477088
0.6990514143966788
0.6990494620073033
0.6990475063035766
0.6990455472801136
0.6990435849315295
0.6990416192524396
0.6990396502374587
0.6990376778812023
0.6990357021782853
0.6990337231233226
0.6990317407109295
0.6990297549357212
0.6990277657923127
0.6990257732753193
0.699023777379356
0.6990217780990376
0.6990197754289799
0.6990177693637972
0.6990157598981052
0.6990137470265188
0.6990117307436531
0.6990097110441232
0.6990076879225444
0.6990056613735316
0.6990036313917
0.6990015979716646
0.6989995611080407
0.6989975207954434
0.6989954770284876
0.6989934298017886
0.6989913791099615
0.6989893249476213
0.6989872673093832
0.6989852061898623
0.6989831415836737
0.6989810734854325
0.6989790018897538
0.6989769267912528
0.6989748481845445
0.6989727660642441
0.6989706804249667
0.6989685912613273
0.6989664985679411
0.6989644023394234
0.6989623025703889
0.6989601992554529
0.6989580923892308
0.6989559819663372
0.6989538679813877
0.6989517504289972
0.6989496293037806
0.6989475046003533
0.6989453763133303
0.6989432444373266
0.6989411089669577
0.6989389698968382
0.6989368272215838
0.698934680935809
0.6989325310341293
0.6989303775111596
0.6989282203615153
0.698926059579811
0.6989238951606624
0.6989217270986844
0.698919555388492
0.6989173800247003
0.6989152010019246
0.6989130183147798
0.6989108319578812
0.6989086419258437
0.6989064482132826
0.6989042508148128
0.6989020497250498
0.6988998449386084
0.6988976364501036
0.6988954242541509
0.6988932083453652
0.6988909887183615
0.6988887653677551
0.698886538288161
0.6988843074741945
0.6988820729204704
0.6988798346216042
0.6988775925722105
0.698875346766905
0.6988730972003023
0.6988708438670177
0.6988685867616664
0.6988663258788634
0.698864061213224
0.698861792759363
0.6988595205118958
0.6988572444654374
0.6988549646146028
0.6988526809540074
0.698850393478266
0.6988481021819939
0.6988458070598061
0.6988435081063179
0.6988412053161442
0.6988388986839001
0.698836588204201
0.6988342738716616
0.6988319556808974
0.6988296336265233
0.6988273077031544
0.6988249779054059
0.6988226442278929
0.6988203066652305
0.6988179652120338
0.6988156198629178
0.6988132706124978
0.6988109174553889
0.6988085603862061
0.6988061993995646
0.6988038344900793
0.6988014656523657
0.6987990928810385
0.6987967161707133
0.6987943355160047
0.698791950911528
0.6987895623518983
0.6987871698317308
0.6987847733456407
0.698782372888243
0.6987799684541527
0.6987775600379851
0.698775147634355
0.6987727312378779
0.6987703108431687
0.6987678864448426
0.6987654580375146
0.6987630256157998
0.6987605891743135
0.6987581487076707
0.6987557042104865
0.6987532556773761
0.698750803113815
0.698748346527945
0.6987458859086898
0.6987434212447556
0.6987409525248492
0.6987384797376769
0.6987360028719451
0.6987335219163604
0.6987310368596292
0.6987285476904582
0.6987260543975534
0.6987235569696216
0.6987210553953692
0.6987185496635027
0.6987160397627282
0.6987135256817528
0.6987110074092825
0.6987084849340239
0.6987059582446836
0.6987034273299677
0.6987008921785831
0.698698352779236
0.6986958091206329
0.6986932611914803
0.6986907089804845
0.6986881524763523
0.69868559166779
0.6986830265435039
0.6986804570922006
0.6986778833025868
0.6986753051633686
0.6986727226632525
0.6986701357909453
0.6986675445351529
0.6986649488845824
0.6986623488279399
0.6986597443539317
0.6986571354512648
0.6986545221086451
0.6986519043147795
0.6986492820583742
0.6986466553281357
0.6986440241127706
0.6986413884009853
0.6986387481814862
0.6986361034429797
0.6986334541741724
0.6986308003637708
0.6986281420004814
0.6986254790730102
0.6986228115700645
0.69862013948035
0.6986174627925734
0.6986147814954414
0.6986120955776602
0.6986094050279363
0.6986067098349763
0.6986040099874865
0.6986013054741735
0.6985985962837438
0.6985958824049036
0.6985931638263595
0.6985904405368182
0.6985877125249857
0.698584979779569
0.6985822422892741
0.6985795000428078
0.6985767530288765
0.6985740012361863
0.6985712446534441
0.6985684832693562
0.6985657170726289
0.6985629460519692
0.6985601701960829
0.698557389493677
0.6985546039334576
0.6985518135041312
0.6985490181944045
0.6985462179929839
0.6985434128885757
0.6985406028698864
0.6985377879256226
0.6985349680444908
0.6985321432151972
0.6985293134264484
0.698526478666951
0.6985236389254112
0.6985207941905356
0.6985179444510308
0.698515089695603
0.6985122299129589
0.6985093650918048
0.6985064952208474
0.6985036202887929
0.6985007402843477
0.6984978551962187
0.6984949650131119
0.698492069723734
0.6984891693167914
0.6984862637809905
0.6984833531050381
0.6984804372776401
0.6984775162875035
0.6984745901233345
0.6984716587738394
0.698468722227725
0.6984657804736977
0.698462833500464
0.6984598812967301
0.6984569238512026
0.6984539611525881
0.6984509931895927
0.6984480199509234
0.6984450414252863
0.6984420576013879
0.6984390684679347
0.6984360740136332
0.6984330742271899
0.6984300690973112
0.6984270586127035
0.6984240427620735
0.6984210215341273
0.6984179949175716
0.6984149629011128
0.6984119254734575
0.6984088826233119
0.6984058343393827
0.6984027806103764
0.6983997214249992
0.6983966567719577
0.6983935866399584
0.698390511017708
0.6983874298939124
0.6983843432572785
0.6983812510965125
0.6983781534003211
0.6983750501574107
0.6983719413564877
0.6983688269862586
0.6983657070354298
0.6983625814927079
0.6983594503467991
0.6983563135864103
0.6983531712002475
0.6983500231770174
0.6983468695054267
0.6983437101741814
0.6983405451719882
0.6983373744875535
0.6983341981095839
0.6983310160267856
0.6983278282278654
0.6983246347015295
0.6983214354364845
0.6983182304214369
0.6983150196450929
0.6983118030961593
0.6983085807633423
0.6983053526353485
0.6983021187008845
0.6982988789486565
0.698295633367371
0.6982923819457346
0.6982891246724537
0.6982858615362348
0.6982825925257843
0.6982793176298088
0.6982760368370144
0.698272750136108
0.698269457515796
0.6982661589647846
0.6982628544717805
0.69825954402549
0.6982562276146197
0.698252905227876
0.6982495768539654
0.6982462424815942
0.698242902099469
0.6982395556962965
0.6982362032607827
0.6982328447816345
0.698229480247558
0.69822610964726
0.6982227329694466
0.6982193502028244
0.6982159613361002
0.69821256635798
0.6982091652571705
0.698205758022378
0.6982023446423093
0.6981989251056705
0.6981954994011682
0.698192067517509
0.698188629443399
0.698185185167545
0.6981817346786535
0.6981782779654306
0.6981748150165833
0.6981713458208174
0.6981678703668399
0.6981643886433572