FoamFile
{
    version     2.0;
    format      ascii;
    class       volScalarField;
    location    "100";
    object      theta.expected;
}
// * * * * * * * * * * * * * * * * * * * * * * * * * * * * * * * * * * * * * //

dimensions      [0 0 0 0 0 0 0];

internalField   nonuniform List<scalar> 
5000
(
0.6999994649535678
0.6999985948459576
0.6999977247103056
0.6999968545364768
0.6999959843169548
0.6999951140474404
0.6999942437237482
0.6999933733416915
0.6999925028970848
0.6999916323857421
0.6999907618034774
0.6999898911461049
0.6999890204094382
0.699988149589292
0.699987278680184
0.6999864076775992
0.6999855365794259
0.6999846653835582
0.6999837940878907
0.6999829226903179
0.6999820511887342
0.6999811795810342
0.6999803078651122
0.6999794360388628
0.6999785641001804
0.6999776920469595
0.6999768198770945
0.6999759475884798
0.69997507517901
0.6999742026465796
0.699973329989083
0.6999724572044148
0.6999715842904691
0.6999707112451408
0.6999698380663238
0.6999689647519132
0.6999680912998031
0.6999672177078881
0.6999663439740627
0.6999654700962211
0.6999645960722581
0.699963721900068
0.6999628475775452
0.6999619731025843
0.6999610984730797
0.6999602236869259
0.6999593487420174
0.6999584736362485
0.6999575983675139
0.699956722933708
0.6999558473327251
0.6999549715624596
0.6999540956208065
0.6999532195056595
0.6999523432142978
0.6999514667442442
0.6999505900941995
0.6999497132628711
0.6999488362489669
0.6999479590511942
0.699947081668261
0.6999462040988746
0.699945326341743
0.6999444483955737
0.6999435702590742
0.6999426919309523
0.6999418134099156
0.6999409346946718
0.6999400557839284
0.6999391766763933
0.6999382973707738
0.6999374178657779
0.6999365381601128
0.6999356582524868
0.6999347781416069
0.6999338978261811
0.699933017304917
0.6999321365765221
0.6999312556397044
0.6999303744931711
0.6999294931356299
0.6999286115657887
0.6999277297823551
0.6999268477840367
0.6999259655695409
0.6999250831375757
0.6999242004868487
0.6999233176160674
0.6999224345239393
0.6999215512091724
0.6999206676704742
0.6999197839065523
0.6999188999161144
0.699918015697868
0.699917131250521
0.6999162465727811
0.6999153616633554
0.6999144765209521
0.6999135911442785
0.6999127055320425
0.6999118196829516
0.6999109335957134
0.6999100472690357
0.6999091607016261
0.6999082738921922
0.6999073868394416
0.6999064995420821
0.6999056119988212
0.6999047242083666
0.6999038361694259
0.6999029478807068
0.699902059340917
0.699901170548764
0.6999002815029555
0.6998993922021992
0.6998985026452026
0.6998976128306735
0.6998967227573195
0.6998958324238485
0.6998949418289676
0.6998940509713847
0.6998931598498076
0.6998922684629438
0.699891376809501
0.6998904848881868
0.6998895926977088
0.6998887002367749
0.6998878075040923
0.6998869144983689
0.6998860212183123
0.6998851276626303
0.6998842338300306
0.6998833397192203
0.6998824453289076
0.6998815506578
0.6998806557046051
0.6998797604680305
0.6998788649467839
0.6998779691395729
0.6998770730451053
0.6998761766620885
0.6998752799892302
0.6998743830252384
0.6998734857688202
0.6998725882186837
0.6998716903735362
0.6998707922320855
0.6998698937930394
0.6998689950551052
0.699868096016991
0.6998671966774038
0.699866297035052
0.6998653970889205
0.6998644968389695
0.6998635962842762
0.6998626954238003
0.6998617942565016
0.6998608927813398
0.6998599909972746
0.6998590889032656
0.6998581864982728
0.6998572837812558
0.6998563807511742
0.6998554774069877
0.6998545737476564
0.6998536697721397
0.6998527654793973
0.6998518608683891
0.6998509559380747
0.699850050687414
0.6998491451153666
0.6998482392208921
0.6998473330029503
0.6998464264605011
0.6998455195925041
0.699844612397919
0.6998437048757056
0.6998427970248234
0.6998418888442325
0.6998409803328923
0.6998400714897628
0.6998391623138035
0.699838252803974
0.6998373429592345
0.6998364327785443
0.6998355222608634
0.6998346114051514
0.6998337002103678
0.6998327886754727
0.6998318767994257
0.6998309645811865
0.6998300520197149
0.6998291391139705
0.6998282258629129
0.6998273122655023
0.699826398320698
0.6998254840274598
0.6998245693847476
0.6998236543915208
0.6998227390467395
0.6998218233493633
0.6998209072983518
0.6998199908926647
0.699819074131262
0.6998181570131031
0.699817239537148
0.6998163217023563
0.6998154035076877
0.699814484952102
0.6998135660345588
0.6998126467540179
0.6998117271094392
0.6998108070997819
0.6998098867240063
0.699808965981072
0.6998080448699386
0.6998071233895657
0.6998062015389134
0.699805279316941
0.6998043567226085
0.6998034337548755
0.6998025104127019
0.6998015866950473
0.6998006626008715
0.6997997381291339
0.6997988132787947
0.6997978880488134
0.6997969624381497
0.6997960364457633
0.699795110070614
0.6997941833116615
0.6997932561678655
0.6997923286381859
0.6997914007215822
0.6997904724170142
0.6997895437234416
0.6997886146398242
0.6997876851651217
0.6997867552982938
0.6997858250383003
0.6997848943841007
0.699783963334655
0.6997830318889228
0.6997821000458637
0.6997811678044378
0.6997802351636044
0.6997793021223235
0.6997783686795547
0.6997774348342578
0.6997765005853924
0.6997755659319185
0.6997746308727955
0.6997736954069832
0.6997727595334414
0.69977182325113
0.6997708865590083
0.6997699494560364
0.6997690119411738
0.6997680740133804
0.6997671356716159
0.6997661969148399
0.6997652577420121
0.6997643181520923
0.6997633781440403
0.6997624377168158
0.6997614968693785
0.699760555600688
0.6997596139097042
0.6997586717953868
0.6997577292566953
0.6997567862925899
0.6997558429020299
0.6997548990839751
0.6997539548373855
0.6997530101612204
0.6997520650544398
0.6997511195160033
0.6997501735448709
0.699749227140002
0.6997482803003563
0.6997473330248938
0.6997463853125742
0.6997454371623569
0.6997444885732019
0.6997435395440689
0.6997425900739175
0.6997416401617076
0.6997406898063989
0.6997397390069511
0.6997387877623238
0.6997378360714768
0.6997368839333697
0.6997359313469627
0.699734978311215
0.6997340248250865
0.6997330708875369
0.6997321164975261
0.6997311616540137
0.6997302063559593
0.6997292506023228
0.6997282943920639
0.6997273377241422
0.6997263805975177
0.6997254230111497
0.6997244649639983
0.6997235064550231
0.6997225474831839
0.6997215880474401
0.6997206281467518
0.6997196677800788
0.6997187069463803
0.6997177456446164
0.6997167838737469
0.6997158216327313
0.6997148589205294
0.699713895736101
0.6997129320784058
0.6997119679464034
0.6997110033390537
0.6997100382553163
0.699709072694151
0.6997081066545175
0.6997071401353755
0.6997061731356848
0.6997052056544051
0.6997042376904961
0.6997032692429173
0.6997023003106289
0.6997013308925902
0.6997003609877611
0.6996993905951013
0.6996984197135706
0.6996974483421289
0.6996964764797353
0.6996955041253502
0.699694531277933
0.6996935579364434
0.6996925840998414
0.6996916097670862
0.699690634937138
0.6996896596089565
0.6996886837815012
0.6996877074537318
0.6996867306246082
0.6996857532930901
0.6996847754600631
0.6996837971330921
0.6996828183120092
0.6996818389955846
0.6996808591825898
0.6996798788717952
0.6996788980619718
0.6996779167518905
0.699676934940322
0.6996759526260372
0.6996749698078069
0.6996739864844019
0.6996730026545931
0.6996720183171512
0.6996710334708471
0.6996700481144518
0.699669062246736
0.6996680758664704
0.6996670889724261
0.6996661015633737
0.6996651136380841
0.6996641251953283
0.6996631362338768
0.6996621467525006
0.6996611567499708
0.6996601662250577
0.6996591751765324
0.6996581836031659
0.6996571915037288
0.699656198876992
0.6996552057217263
0.6996542120367026
0.6996532178206917
0.6996522230724643
0.6996512277907915
0.6996502319744439
0.6996492356221924
0.699648238732808
0.6996472413050612
0.6996462433377232
0.6996452448295645
0.699644245779356
0.6996432461858687
0.6996422460478734
0.6996412453641407
0.6996402441334418
0.6996392423545472
0.6996382400262279
0.6996372371472548
0.6996362337163984
0.6996352297324299
0.69963422519412
0.6996332201002393
0.699632214449559
0.6996312082408499
0.6996302014728826
0.6996291941444279
0.699628186254257
0.6996271778011404
0.6996261687838491
0.6996251592011538
0.6996241490518254
0.6996231383346347
0.6996221270483526
0.6996211151917497
0.6996201027635972
0.6996190897626658
0.6996180761877263
0.6996170620375494
0.6996160473109062
0.6996150320065672
0.6996140161233034
0.6996129996598859
0.699611982615085
0.6996109649876718
0.6996099467764173
0.6996089279800921
0.699607908597467
0.6996068886273131
0.699605868068401
0.6996048469195016
0.6996038251793857
0.6996028028468241
0.6996017799205878
0.6996007563994474
0.6995997322821739
0.699598707567538
0.6995976822543106
0.6995966563412627
0.6995956298271648
0.699594602710788
0.699593574990903
0.6995925466662807
0.6995915177356917
0.6995904881979074
0.699589458051698
0.6995884272958347
0.6995873959290881
0.6995863639502293
0.6995853313580288
0.6995842981512578
0.6995832643286869
0.6995822298890868
0.6995811948312286
0.699580159153883
0.6995791228558211
0.6995780859358133
0.6995770483926307
0.6995760102250441
0.6995749714318242
0.6995739320117419
0.6995728919635681
0.6995718512860737
0.6995708099780292
0.6995697680382059
0.6995687254653743
0.6995676822583053
0.6995666384157697
0.6995655939365384
0.6995645488193821
0.6995635030630719
0.6995624566663784
0.6995614096280725
0.6995603619469251
0.6995593136217069
0.6995582646511889
0.6995572150341416
0.6995561647693362
0.6995551138555433
0.6995540622915339
0.6995530100760787
0.6995519572079486
0.6995509036859145
0.6995498495087471
0.6995487946752172
0.6995477391840959
0.6995466830341536
0.6995456262241614
0.6995445687528903
0.6995435106191107
0.6995424518215937
0.6995413923591103
0.6995403322304309
0.6995392714343266
0.6995382099695683
0.6995371478349267
0.6995360850291724
0.6995350215510767
0.6995339573994102
0.6995328925729436
0.6995318270704481
0.6995307608906942
0.6995296940324529
0.6995286264944949
0.699527558275591
0.6995264893745122
0.6995254197900294
0.6995243495209131
0.6995232785659345
0.6995222069238641
0.699521134593473
0.699520061573532
0.6995189878628116
0.6995179134600831
0.6995168383641168
0.6995157625736842
0.6995146860875555
0.699513608904502
0.6995125310232942
0.6995114524427032
0.6995103731614997
0.6995092931784544
0.6995082124923383
0.6995071311019223
0.699506049005977
0.6995049662032734
0.6995038826925822
0.6995027984726745
0.6995017135423208
0.6995006279002922
0.6994995415453593
0.699498454476293
0.6994973666918642
0.6994962781908439
0.6994951889720026
0.6994940990341112
0.6994930083759406
0.6994919169962618
0.6994908248938454
0.6994897320674621
0.699488638515883
0.6994875442378791
0.6994864492322207
0.699485353497679
0.6994842570330249
0.6994831598370289
0.699482061908462
0.6994809632460951
0.699479863848699
0.6994787637150444
0.6994776628439022
0.6994765612340436
0.6994754588842388
0.699474355793259
0.699473251959875
0.6994721473828575
0.6994710420609775
0.6994699359930057
0.6994688291777129
0.6994677216138703
0.6994666133002482
0.6994655042356177
0.6994643944187497
0.6994632838484148
0.6994621725233842
0.6994610604424284
0.6994599476043182
0.6994588340078247
0.6994577196517185
0.6994566045347707
0.6994554886557518
0.6994543720134329
0.6994532546065847
0.699452136433978
0.6994510174943838
0.6994498977865726
0.6994487773093155
0.6994476560613835
0.699446534041547
0.6994454112485771
0.6994442876812446
0.6994431633383201
0.6994420382185749
0.6994409123207795
0.6994397856437047
0.6994386581861215
0.6994375299468006
0.699436400924513
0.6994352711180293
0.6994341405261205
0.6994330091475575
0.6994318769811109
0.6994307440255515
0.6994296102796506
0.6994284757421786
0.6994273404119061
0.6994262042876047
0.6994250673680447
0.699423929651997
0.6994227911382324
0.6994216518255217
0.6994205117126361
0.699419370798346
0.6994182290814224
0.6994170865606362
0.6994159432347581
0.6994147991025589
0.6994136541628097
0.6994125084142809
0.6994113618557437
0.699410214485969
0.6994090663037271
0.6994079173077893
0.6994067674969263
0.6994056168699089
0.6994044654255082
0.6994033131624946
0.6994021600796391
0.6994010061757125
0.6993998514494858
0.6993986958997298
0.6993975395252152
0.6993963823247127
0.6993952242969935
0.6993940654408282
0.6993929057549877
0.6993917452382428
0.6993905838893644
0.699389421707123
0.69938825869029
0.6993870948376358
0.6993859301479315
0.6993847646199476
0.6993835982524551
0.699382431044225
0.699381262994028
0.6993800941006348
0.6993789243628165
0.6993777537793436
0.6993765823489873
0.6993754100705182
0.6993742369427071
0.6993730629643249
0.6993718881341425
0.6993707124509306
0.6993695359134601
0.6993683585205019
0.6993671802708268
0.6993660011632055
0.6993648211964089
0.699363640369208
0.6993624586803733
0.699361276128676
0.6993600927128867
0.6993589084317762
0.6993577232841155
0.6993565372686752
0.6993553503842264
0.6993541626295398
0.6993529740033863
0.6993517845045366
0.6993505941317615
0.699349402883832
0.6993482107595188
0.6993470177575929
0.6993458238768251
0.699344629115986
0.6993434334738465
0.6993422369491777
0.6993410395407503
0.6993398412473351
0.6993386420677027
0.6993374420006242
0.6993362410448705
0.6993350391992121
0.6993338364624203
0.6993326328332654
0.6993314283105186
0.6993302228929507
0.6993290165793324
0.6993278093684346
0.6993266012590281
0.6993253922498839
0.6993241823397724
0.699322971538891
0.699321759867523
0.6993205473240489
0.6993193339062913
0.6993181196120724
0.699316904439214
0.6993156883855389
0.699314471448869
0.6993132536270268
0.6993120349178342
0.6993108153191139
0.6993095948286879
0.6993083734443785
0.6993071511640077
0.699305927985398
0.6993047039063717
0.699303478924751
0.6993022530383579
0.6993010262450149
0.6992997985425442
0.699298569928768
0.6992973404015088
0.6992961099585884
0.6992948785978294
0.6992936463170538
0.6992924131140841
0.6992911789867424
0.699289943932851
0.699288707950232
0.6992874710367079
0.6992862331901007
0.6992849944082328
0.6992837546889263
0.6992825140300036
0.6992812724292871
0.6992800298845987
0.6992787863937607
0.6992775419545956
0.6992762965649255
0.6992750502225724
0.699273802925359
0.6992725546711074
0.6992713054576396
0.6992700552827781
0.6992688041443451
0.6992675520401628
0.6992662989680534
0.6992650449258393
0.6992637899113425
0.6992625339223856
0.6992612769567905
0.6992600190123798
0.6992587600869754
0.6992575001783997
0.699256239284475
0.6992549774030236
0.6992537145318675
0.699252450668829
0.6992511858117306
0.6992499199583945
0.6992486531066425
0.6992473852542974
0.6992461163991812
0.6992448465391161
0.6992435756719245
0.6992423037954284
0.6992410309074504
0.6992397570058124
0.6992384820883372
0.6992372061528462
0.6992359291971624
0.6992346512191076
0.6992333722165042
0.6992320921871744
0.6992308111289406
0.6992295290396249
0.6992282459170497
0.6992269617590369
0.6992256765634092
0.6992243903279886
0.6992231030505972
0.6992218147290575
0.6992205253611918
0.6992192349448221
0.6992179434777708
0.6992166509578601
0.6992153573829124
0.6992140627507496
0.6992127670591942
0.6992114703060686
0.6992101724891946
0.6992088736063947
0.6992075736554912
0.6992062726343065
0.6992049705406623
0.6992036673723815
0.6992023631272859
0.6992010578031979
0.6991997513979397
0.6991984439093335
0.6991971353352017
0.6991958256733665
0.6991945149216501
0.6991932030778748
0.6991918901398627
0.6991905761054363
0.6991892609724176
0.699187944738629
0.6991866274018926
0.699185308960031
0.699183989410866
0.69918266875222
0.6991813469819155
0.6991800240977744
0.6991787000976192
0.6991773749792718
0.6991760487405548
0.6991747213792905
0.6991733928933007
0.6991720632804082
0.6991707325384348
0.6991694006652028
0.6991680676585348
0.6991667335162528
0.6991653982361788
0.6991640618161354
0.699162724253945
0.6991613855474295
0.6991600456944111
0.6991587046927122
0.6991573625401554
0.6991560192345622
0.6991546747737553
0.699153329155557
0.6991519823777894
0.6991506344382747
0.6991492853348353
0.6991479350652934
0.6991465836274712
0.6991452310191909
0.699143877238275
0.6991425222825454
0.6991411661498245
0.6991398088379347
0.699138450344698
0.6991370906679367
0.6991357298054732
0.6991343677551296
0.6991330045147283
0.6991316400820913
0.6991302744550411
0.6991289076313998
0.6991275396089895
0.6991261703856329
0.6991247999591519
0.6991234283273687
0.6991220554881059
0.6991206814391854
0.6991193061784295
0.6991179297036607
0.699116552012701
0.6991151731033727
0.699113792973498
0.6991124116208992
0.6991110290433986
0.6991096452388184
0.6991082602049808
0.6991068739397082
0.6991054864408226
0.6991040977061465
0.699102707733502
0.6991013165207115
0.6990999240655968
0.6990985303659809
0.6990971354196853
0.6990957392245327
0.6990943417783452
0.6990929430789451
0.6990915431241547
0.699090141911796
0.6990887394396915
0.6990873357056634
0.6990859307075339
0.6990845244431251
0.6990831169102595
0.6990817081067592
0.6990802980304466
0.6990788866791438
0.6990774740506731
0.6990760601428566
0.6990746449535167
0.6990732284804758
0.6990718107215559
0.6990703916745793
0.6990689713373683
0.6990675497077451
0.699066126783532
0.6990647025625512
0.699063277042625
0.6990618502215755
0.6990604220972252
0.6990589926673961
0.6990575619299106
0.6990561298825909
0.6990546965232592
0.6990532618497378
0.699051825859849
0.699050388551415
0.699048949922258
0.6990475099702003
0.6990460686930641
0.6990446260886716
0.6990431821548453
0.6990417368894072
0.6990402902901794
0.6990388423549847
0.6990373930816448
0.6990359424679823
0.6990344905118193
0.699033037210978
0.6990315825632807
0.6990301265665497
0.6990286692186072
0.6990272105172753
0.6990257504603765
0.6990242890457329
0.699022826271167
0.6990213621345006
0.6990198966335562
0.6990184297661561
0.6990169615301225
0.6990154919232775
0.6990140209434436
0.699012548588443
0.6990110748560977
0.69900959974423
0.6990081232506625
0.6990066453732171
0.6990051661097162
0.6990036854579819
0.6990022034158367
0.6990007199811027
0.6989992351516021
0.6989977489251571
0.6989962612995901
0.6989947722727232
0.6989932818423789
0.6989917900063792
0.6989902967625465
0.6989888021087028
0.6989873060426708
0.6989858085622723
0.6989843096653297
0.6989828093496653
0.6989813076131013
0.69897980445346
0.6989782998685635
0.6989767938562343
0.6989752864142944
0.6989737775405662
0.698972267232872
0.6989707554890338
0.698969242306874
0.6989677276842148
0.6989662116188785
0.6989646941086874
0.6989631751514638
0.6989616547450296
0.6989601328872074
0.6989586095758193
0.6989570848086875
0.6989555585836345
0.6989540308984821
0.698952501751053
0.6989509711391693
0.698949439060653
0.6989479055133268
0.6989463704950125
0.6989448340035326
0.6989432960367093
0.6989417565923649
0.6989402156683215
0.6989386732624016
0.6989371293724271
0.6989355839962206
0.6989340371316041
0.6989324887763999
0.6989309389284303
0.6989293875855175
0.6989278347454837
0.6989262804061513
0.6989247245653426
0.6989231672208795
0.6989216083705846
0.69892004801228
0.6989184861437879
0.6989169227629307
0.6989153578675303
0.6989137914554093
0.69891222352439
0.6989106540722944
0.6989090830969448
0.6989075105961635
0.6989059365677728
0.6989043610095949
0.6989027839194518
0.6989012052951662
0.6988996251345599
0.6988980434354556
0.6988964601956752
0.6988948754130412
0.6988932890853755
0.6988917012105006
0.6988901117862388
0.6988885208104123
0.6988869282808433
0.698885334195354
0.6988837385517666
0.6988821413479035
0.6988805425815868
0.6988789422506391
0.6988773403528821
0.6988757368861385
0.6988741318482303
0.69887252523698
0.6988709170502094
0.6988693072857411
0.6988676959413973
0.6988660830150003
0.6988644685043722
0.6988628524073354
0.6988612347217119
0.6988596154453243
0.6988579945759944
0.6988563721115448
0.6988547480497976
0.6988531223885753
0.6988514951256998
0.6988498662589936
0.6988482357862786
0.6988466037053774
0.6988449700141123
0.6988433347103052
0.6988416977917785
0.6988400592563546
0.6988384191018554
0.6988367773261036
0.6988351339269211
0.6988334889021304
0.6988318422495534
0.6988301939670126
0.6988285440523303
0.6988268925033287
0.6988252393178298
0.6988235844936562
0.69882192802863
0.6988202699205734
0.6988186101673087
0.6988169487666581
0.6988152857164439
0.6988136210144884
0.6988119546586136
0.6988102866466421
0.698808616976396
0.6988069456456975
0.6988052726523687
0.6988035979942321
0.6988019216691098
0.6988002436748242
0.6987985640091975
0.6987968826700519
0.6987951996552095
0.6987935149624929
0.6987918285897239
0.6987901405347252
0.6987884507953188
0.698786759369327
0.698785066254572
0.698783371448876
0.6987816749500614
0.6987799767559504
0.6987782768643652
0.6987765752731282
0.6987748719800615
0.6987731669829872
0.6987714602797277
0.6987697518681053
0.6987680417459423
0.6987663299110609
0.6987646163612833
0.6987629010944315
0.6987611841083282
0.6987594654007954
0.6987577449696554
0.6987560228127303
0.6987542989278427
0.6987525733128145
0.6987508459654683
0.698749116883626
0.6987473860651098
0.6987456535077423
0.6987439192093455
0.6987421831677418
0.6987404453807534
0.6987387058462025
0.6987369645619113
0.698735221525702
0.6987334767353971
0.6987317301888186
0.698729981883789
0.6987282318228077
0.6987264800080842
0.6987247264351933
0.6987229710996914
0.6987212139971354
0.6987194551230819
0.6987176944730877
0.6987159320427093
0.6987141678275036
0.6987124018230274
0.6987106340248371
0.6987088644284897
0.6987070930295417
0.6987053198235498
0.6987035448060709
0.6987017679726615
0.6986999893188784
0.6986982088402783
0.6986964265324179
0.6986946423908539
0.6986928564111429
0.6986910685888418
0.6986892789195073
0.6986874873986957
0.6986856940219642
0.6986838987848693
0.6986821016829678
0.6986803027118162
0.6986785018669714
0.6986766991439901
0.6986748945384288
0.6986730880458444
0.6986712796617937
0.6986694693818329
0.6986676572015192
0.6986658431164092
0.6986640271220595
0.698662209214027
0.6986603893878682
0.6986585676391399
0.6986567439633986
0.6986549183562013
0.6986530908131046
0.6986512613296652
0.6986494299014396
0.6986475965239849
0.6986457611928575
0.6986439239036142
0.6986420846518118
0.6986402434330068
0.698638400242756
0.6986365550766162
0.6986347079301439
0.698632858798896
0.6986310076784291
0.6986291545643001
0.6986272994520654
0.6986254423372817
0.698623583215506
0.6986217220822948
0.6986198589332048
0.6986179937637927
0.6986161265696155
0.6986142573462295
0.6986123860891916
0.6986105127940584
0.6986086374563867
0.6986067600717332
0.6986048806356546
0.6986029991437075
0.6986011155914487
0.6985992299744349
0.6985973422882229
0.6985954525283692
0.6985935606904305
0.6985916667699638
0.6985897707625255
0.6985878726636724
0.6985859724689611
0.6985840701739487
0.6985821657741915
0.6985802592652463
0.6985783506426698
0.6985764399020188
0.69857452703885
0.69857261204872
0.6985706949271854
0.6985687756698031
0.6985668542721298
0.6985649307297223
0.698563005038137
0.6985610771929307
0.6985591471896602
0.6985572150238823
0.6985552806911535
0.6985533441870305
0.6985514055070702
0.6985494646468291
0.6985475216018641
0.6985455763677316
0.6985436289399887
0.6985416793141919
0.6985397274858978
0.6985377734506633
0.6985358172040449
0.6985338587415995
0.6985318980588837
0.6985299351514541
0.6985279700148677
0.698526002644681
0.6985240330364506
0.6985220611857335
0.6985200870880862
0.6985181107390654
0.698516132134228
0.6985141512691303
0.6985121681393294
0.6985101827403818
0.6985081950678445
0.6985062051172737
0.6985042128842265
0.6985022183642594
0.6985002215529291
0.6984982224457926
0.6984962210384063
0.698494217326327
0.6984922113051114
0.6984902029703162
0.698488192317498
0.6984861793422137
0.69848416404002
0.6984821464064732
0.6984801264371306
0.6984781041275486
0.6984760794732838
0.6984740524698931
0.6984720231129331
0.6984699913979606
0.6984679573205322
0.6984659208762046
0.6984638820605348
0.6984618408690789
0.6984597972973942
0.6984577513410369
0.6984557029955643
0.6984536522565326
0.6984515991194986
0.6984495435800192
0.6984474856336508
0.6984454252759505
0.6984433625024746
0.6984412973087801
0.6984392296904236
0.6984371596429617
0.6984350871619512
0.6984330122429491
0.6984309348815115
0.6984288550731954
0.6984267728135577
0.6984246880981547
0.6984226009225435
0.6984205112822806
0.6984184191729227
0.6984163245900266
0.6984142275291488
0.6984121279858461
0.6984100259556755
0.6984079214341932
0.6984058144169563
0.6984037048995213
0.6984015928774449
0.6983994783462839
0.6983973613015951
0.698395241738935
0.6983931196538603
0.6983909950419278
0.6983888678986943
0.6983867382197162
0.6983846060005505
0.6983824712367539
0.6983803339238829
0.6983781940574942
0.6983760516331446
0.698373906646391
0.6983717590927897
0.6983696089678978
0.6983674562672717
0.6983653009864683
0.6983631431210442
0.6983609826665561
0.6983588196185608
0.6983566539726149
0.6983544857242752
0.6983523148690983
0.6983501414026408
0.6983479653204597
0.6983457866181115
0.6983436052911531
0.698341421335141
0.698339234745632
0.6983370455181827
0.6983348536483498
0.6983326591316902
0.6983304619637606
0.6983282621401173
0.6983260596563176
0.6983238545079177
0.6983216466904745
0.6983194361995446
0.698317223030685
0.6983150071794523
0.6983127886414029
0.6983105674120937
0.6983083434870816
0.698306116861923
0.6983038875321748
0.6983016554933935
0.6982994207411362
0.6982971832709589
0.6982949430784192
0.6982927001590731
0.6982904545084776
0.6982882061221893
0.6982859549957651
0.6982837011247615
0.6982814445047352
0.698279185131243
0.6982769229998416
0.6982746581060878
0.698272390445538
0.6982701200137491
0.6982678468062778
0.698265570818681
0.6982632920465149
0.6982610104853366
0.6982587261307027
0.69825643897817
0.6982541490232951
0.6982518562616346
0.6982495606887453
0.6982472623001841
0.6982449610915075
0.6982426570582722
0.6982403501960348
0.6982380405003521
0.698235727966781
0.6982334125908781
0.6982310943681999
0.6982287732943033
0.6982264493647451
0.6982241225750816
0.6982217929208699
0.6982194603976666
0.6982171250010284
0.6982147867265118
0.6982124455696738
0.6982101015260711
0.69820775459126
0.6982054047607977
0.6982030520302407
0.6982006963951456
0.6981983378510692
0.6981959763935683
0.6981936120181995
0.6981912447205195
0.698188874496085
0.6981865013404527
0.6981841252491793
0.6981817462178215
0.698179364241936
0.6981769793170797
0.698174591438809
0.6981722006026809
0.6981698068042518
0.6981674100390787
0.698165010302718
0.6981626075907266
0.6981602018986612
0.6981577932220784
0.698155381556535
0.6981529668975877
0.6981505492407931
0.698148128581708
0.6981457049158892
0.6981432782388932
0.6981408485462769
0.6981384158335967
0.6981359800964096
0.6981335413302723
0.6981310995307412
0.6981286546933734
0.6981262068137253
0.6981237558873538
0.6981213019098154
0.698118844876667
0.6981163847834652
0.6981139216257668
0.6981114553991284
0.6981089860991068
0.6981065137212584
0.6981040382611404
0.6981015597143093
0.6980990780763215
0.6980965933427341
0.6980941055091037
0.6980916145709868
0.6980891205239405
0.6980866233635211
0.6980841230852856
0.6980816196847904
0.6980791131575926
0.6980766035026013
0.6980740907759551
0.6980715749919925
0.6980690561413814
0.6980665342147888
0.6980640092028824
0.6980614810963295
0.6980589498857976
0.6980564155619541
0.6980538781154664
0.698051337537002
0.6980487938172282
0.6980462469468125
0.6980436969164224
0.6980411437167253
0.6980385873383885
0.6980360277720795
0.698033465008466
0.6980308990382149
0.698028329851994
0.6980257574404706
0.6980231817943122
0.6980206029041862
0.69801802076076
0.6980154353547011
0.6980128466766768
0.6980102547173547
0.6980076594674021
0.6980050609174865
0.6980024590582751
0.6979998538804357
0.6979972453746355
0.6979946335315419
0.6979920183418225
0.6979893997961445
0.6979867778851756
0.697984152599583
0.6979815239300343
0.6979788918671969
0.697976256401738
0.6979736175243252
0.6979709752256261
0.6979683294963078
0.697965680327038
0.6979630277084838
0.6979603716313131
0.697957712086193
0.6979550490637909
0.6979523825547744
0.6979497125498108
0.6979470390395677
0.6979443620147123
0.6979416814659121
0.6979389973838347
0.6979363097591473
0.6979336185825176
0.6979309238446125
0.6979282255361001
0.6979255236476474
0.6979228181699219
0.6979201090935911
0.6979173964093225
0.6979146801077833
0.6979119601796411
0.6979092366155631
0.6979065094062171
0.6979037785422703
0.6979010440143901
0.6978983058132441
0.6978955639294996
0.697892818353824
0.6978900690768847
0.6978873160893492
0.6978845593818852
0.6978817989451596
0.69787903476984
0.6978762668465943
0.6978734951660893
0.6978707197189927
0.6978679404959719
0.6978651574876943
0.6978623706848275
0.6978595800780385
0.6978567856579952
0.697853987415365
0.697851185340815
0.6978483794250128
0.6978455696586259
0.6978427560323215
0.6978399385367673
0.6978371171626306
0.6978342919005788
0.6978314627412794
0.6978286296753998
0.6978257926936073
0.6978229517865697
0.6978201069449541
0.697817258159428
0.6978144054206588
0.697811548719314
0.697808688046061
0.697805823391567
0.6978029547465
0.6978000821015268
0.6977972054473153
0.6977943247745327
0.6977914400738464
0.6977885513359239
0.6977856585514326
0.69778276171104
0.6977798608054135
0.6977769558252206
0.6977740467611284
0.6977711336038047
0.6977682163439167
0.6977652949721321
0.6977623694791181
0.6977594398555421
0.6977565060920716
0.6977535681793741
0.6977506261081169
0.6977476798689676
0.6977447294525932
0.6977417748496617
0.6977388160508403
0.6977358530467963
0.6977328858281971
0.6977299143857105
0.6977269387100037
0.697723958791744
0.697720974621599
0.6977179861902361
0.6977149934883224
0.697711996506526
0.6977089952355139
0.6977059896659535
0.6977029797885123
0.6976999655938577
0.6976969470726572
0.6976939242155783
0.6976908970132882
0.6976878654564544
0.6976848295357446
0.6976817892418259
0.6976787445653659
0.6976756954970319
0.6976726420274914
0.6976695841474118
0.6976665218474606
0.6976634551183051
0.6976603839506128
0.6976573083350512
0.6976542282622877
0.6976511437229896
0.6976480547078245
0.6976449612074597
0.6976418632125627
0.6976387607138009
0.6976356537018417
0.6976325421673526
0.6976294261010011
0.6976263054934544
0.6976231803353801
0.6976200506174455
0.6976169163303182
0.6976137774646654
0.6976106340111548
0.6976074859604535
0.6976043333032294
0.6976011760301494
0.6975980141318813
0.6975948475990922
0.6975916764224499